<VTKFile type="StructuredGrid" version="0.1" byte_order="LittleEndian">
  <StructuredGrid WholeExtent="0 256 0 32 0 0">
    <Piece Extent="0 256 0 32 0 0">
    <Points>
      <DataArray Name="coords (m)" type="Float64" NumberOfComponents="3" format="ascii">
      0.000000e+00 -3.000000e+03 0.000000e+00
      5.000000e+01 -3.000000e+03 0.000000e+00
      1.000000e+02 -3.000000e+03 0.000000e+00
      3.000000e+02 -3.000000e+03 0.000000e+00
      5.000000e+02 -3.000000e+03 0.000000e+00
      7.500000e+02 -3.000000e+03 0.000000e+00
      1.000000e+03 -3.000000e+03 0.000000e+00
      2.500000e+03 -3.000000e+03 0.000000e+00
      4.000000e+03 -3.000000e+03 0.000000e+00
      4.790323e+03 -3.000000e+03 0.000000e+00
      5.580645e+03 -3.000000e+03 0.000000e+00
      6.370968e+03 -3.000000e+03 0.000000e+00
      7.161290e+03 -3.000000e+03 0.000000e+00
      7.951613e+03 -3.000000e+03 0.000000e+00
      8.741935e+03 -3.000000e+03 0.000000e+00
      9.532258e+03 -3.000000e+03 0.000000e+00
      1.032258e+04 -3.000000e+03 0.000000e+00
      1.111290e+04 -3.000000e+03 0.000000e+00
      1.190323e+04 -3.000000e+03 0.000000e+00
      1.269355e+04 -3.000000e+03 0.000000e+00
      1.348387e+04 -3.000000e+03 0.000000e+00
      1.427419e+04 -3.000000e+03 0.000000e+00
      1.506452e+04 -3.000000e+03 0.000000e+00
      1.585484e+04 -3.000000e+03 0.000000e+00
      1.664516e+04 -3.000000e+03 0.000000e+00
      1.743548e+04 -3.000000e+03 0.000000e+00
      1.822581e+04 -3.000000e+03 0.000000e+00
      1.901613e+04 -3.000000e+03 0.000000e+00
      1.980645e+04 -3.000000e+03 0.000000e+00
      2.059677e+04 -3.000000e+03 0.000000e+00
      2.138710e+04 -3.000000e+03 0.000000e+00
      2.217742e+04 -3.000000e+03 0.000000e+00
      2.296774e+04 -3.000000e+03 0.000000e+00
      2.375806e+04 -3.000000e+03 0.000000e+00
      2.454839e+04 -3.000000e+03 0.000000e+00
      2.533871e+04 -3.000000e+03 0.000000e+00
      2.612903e+04 -3.000000e+03 0.000000e+00
      2.691935e+04 -3.000000e+03 0.000000e+00
      2.770968e+04 -3.000000e+03 0.000000e+00
      2.850000e+04 -3.000000e+03 0.000000e+00
      2.929032e+04 -3.000000e+03 0.000000e+00
      3.008065e+04 -3.000000e+03 0.000000e+00
      3.087097e+04 -3.000000e+03 0.000000e+00
      3.166129e+04 -3.000000e+03 0.000000e+00
      3.245161e+04 -3.000000e+03 0.000000e+00
      3.324194e+04 -3.000000e+03 0.000000e+00
      3.403226e+04 -3.000000e+03 0.000000e+00
      3.482258e+04 -3.000000e+03 0.000000e+00
      3.561290e+04 -3.000000e+03 0.000000e+00
      3.640323e+04 -3.000000e+03 0.000000e+00
      3.719355e+04 -3.000000e+03 0.000000e+00
      3.798387e+04 -3.000000e+03 0.000000e+00
      3.877419e+04 -3.000000e+03 0.000000e+00
      3.956452e+04 -3.000000e+03 0.000000e+00
      4.035484e+04 -3.000000e+03 0.000000e+00
      4.114516e+04 -3.000000e+03 0.000000e+00
      4.193548e+04 -3.000000e+03 0.000000e+00
      4.272581e+04 -3.000000e+03 0.000000e+00
      4.351613e+04 -3.000000e+03 0.000000e+00
      4.430645e+04 -3.000000e+03 0.000000e+00
      4.509677e+04 -3.000000e+03 0.000000e+00
      4.588710e+04 -3.000000e+03 0.000000e+00
      4.667742e+04 -3.000000e+03 0.000000e+00
      4.746774e+04 -3.000000e+03 0.000000e+00
      4.825806e+04 -3.000000e+03 0.000000e+00
      4.904839e+04 -3.000000e+03 0.000000e+00
      4.983871e+04 -3.000000e+03 0.000000e+00
      5.062903e+04 -3.000000e+03 0.000000e+00
      5.141935e+04 -3.000000e+03 0.000000e+00
      5.220968e+04 -3.000000e+03 0.000000e+00
      5.300000e+04 -3.000000e+03 0.000000e+00
      5.379032e+04 -3.000000e+03 0.000000e+00
      5.458065e+04 -3.000000e+03 0.000000e+00
      5.537097e+04 -3.000000e+03 0.000000e+00
      5.616129e+04 -3.000000e+03 0.000000e+00
      5.695161e+04 -3.000000e+03 0.000000e+00
      5.774194e+04 -3.000000e+03 0.000000e+00
      5.853226e+04 -3.000000e+03 0.000000e+00
      5.932258e+04 -3.000000e+03 0.000000e+00
      6.011290e+04 -3.000000e+03 0.000000e+00
      6.090323e+04 -3.000000e+03 0.000000e+00
      6.169355e+04 -3.000000e+03 0.000000e+00
      6.248387e+04 -3.000000e+03 0.000000e+00
      6.327419e+04 -3.000000e+03 0.000000e+00
      6.406452e+04 -3.000000e+03 0.000000e+00
      6.485484e+04 -3.000000e+03 0.000000e+00
      6.564516e+04 -3.000000e+03 0.000000e+00
      6.643548e+04 -3.000000e+03 0.000000e+00
      6.722581e+04 -3.000000e+03 0.000000e+00
      6.801613e+04 -3.000000e+03 0.000000e+00
      6.880645e+04 -3.000000e+03 0.000000e+00
      6.959677e+04 -3.000000e+03 0.000000e+00
      7.038710e+04 -3.000000e+03 0.000000e+00
      7.117742e+04 -3.000000e+03 0.000000e+00
      7.196774e+04 -3.000000e+03 0.000000e+00
      7.275806e+04 -3.000000e+03 0.000000e+00
      7.354839e+04 -3.000000e+03 0.000000e+00
      7.433871e+04 -3.000000e+03 0.000000e+00
      7.512903e+04 -3.000000e+03 0.000000e+00
      7.591935e+04 -3.000000e+03 0.000000e+00
      7.670968e+04 -3.000000e+03 0.000000e+00
      7.750000e+04 -3.000000e+03 0.000000e+00
      7.829032e+04 -3.000000e+03 0.000000e+00
      7.908065e+04 -3.000000e+03 0.000000e+00
      7.987097e+04 -3.000000e+03 0.000000e+00
      8.066129e+04 -3.000000e+03 0.000000e+00
      8.145161e+04 -3.000000e+03 0.000000e+00
      8.224194e+04 -3.000000e+03 0.000000e+00
      8.303226e+04 -3.000000e+03 0.000000e+00
      8.382258e+04 -3.000000e+03 0.000000e+00
      8.461290e+04 -3.000000e+03 0.000000e+00
      8.540323e+04 -3.000000e+03 0.000000e+00
      8.619355e+04 -3.000000e+03 0.000000e+00
      8.698387e+04 -3.000000e+03 0.000000e+00
      8.777419e+04 -3.000000e+03 0.000000e+00
      8.856452e+04 -3.000000e+03 0.000000e+00
      8.935484e+04 -3.000000e+03 0.000000e+00
      9.014516e+04 -3.000000e+03 0.000000e+00
      9.093548e+04 -3.000000e+03 0.000000e+00
      9.172581e+04 -3.000000e+03 0.000000e+00
      9.251613e+04 -3.000000e+03 0.000000e+00
      9.330645e+04 -3.000000e+03 0.000000e+00
      9.409677e+04 -3.000000e+03 0.000000e+00
      9.488710e+04 -3.000000e+03 0.000000e+00
      9.567742e+04 -3.000000e+03 0.000000e+00
      9.646774e+04 -3.000000e+03 0.000000e+00
      9.725806e+04 -3.000000e+03 0.000000e+00
      9.804839e+04 -3.000000e+03 0.000000e+00
      9.883871e+04 -3.000000e+03 0.000000e+00
      9.962903e+04 -3.000000e+03 0.000000e+00
      1.004194e+05 -3.000000e+03 0.000000e+00
      1.012097e+05 -3.000000e+03 0.000000e+00
      1.020000e+05 -3.000000e+03 0.000000e+00
      1.027903e+05 -3.000000e+03 0.000000e+00
      1.035806e+05 -3.000000e+03 0.000000e+00
      1.043710e+05 -3.000000e+03 0.000000e+00
      1.051613e+05 -3.000000e+03 0.000000e+00
      1.059516e+05 -3.000000e+03 0.000000e+00
      1.067419e+05 -3.000000e+03 0.000000e+00
      1.075323e+05 -3.000000e+03 0.000000e+00
      1.083226e+05 -3.000000e+03 0.000000e+00
      1.091129e+05 -3.000000e+03 0.000000e+00
      1.099032e+05 -3.000000e+03 0.000000e+00
      1.106935e+05 -3.000000e+03 0.000000e+00
      1.114839e+05 -3.000000e+03 0.000000e+00
      1.122742e+05 -3.000000e+03 0.000000e+00
      1.130645e+05 -3.000000e+03 0.000000e+00
      1.138548e+05 -3.000000e+03 0.000000e+00
      1.146452e+05 -3.000000e+03 0.000000e+00
      1.154355e+05 -3.000000e+03 0.000000e+00
      1.162258e+05 -3.000000e+03 0.000000e+00
      1.170161e+05 -3.000000e+03 0.000000e+00
      1.178065e+05 -3.000000e+03 0.000000e+00
      1.185968e+05 -3.000000e+03 0.000000e+00
      1.193871e+05 -3.000000e+03 0.000000e+00
      1.201774e+05 -3.000000e+03 0.000000e+00
      1.209677e+05 -3.000000e+03 0.000000e+00
      1.217581e+05 -3.000000e+03 0.000000e+00
      1.225484e+05 -3.000000e+03 0.000000e+00
      1.233387e+05 -3.000000e+03 0.000000e+00
      1.241290e+05 -3.000000e+03 0.000000e+00
      1.249194e+05 -3.000000e+03 0.000000e+00
      1.257097e+05 -3.000000e+03 0.000000e+00
      1.265000e+05 -3.000000e+03 0.000000e+00
      1.272903e+05 -3.000000e+03 0.000000e+00
      1.280806e+05 -3.000000e+03 0.000000e+00
      1.288710e+05 -3.000000e+03 0.000000e+00
      1.296613e+05 -3.000000e+03 0.000000e+00
      1.304516e+05 -3.000000e+03 0.000000e+00
      1.312419e+05 -3.000000e+03 0.000000e+00
      1.320323e+05 -3.000000e+03 0.000000e+00
      1.328226e+05 -3.000000e+03 0.000000e+00
      1.336129e+05 -3.000000e+03 0.000000e+00
      1.344032e+05 -3.000000e+03 0.000000e+00
      1.351935e+05 -3.000000e+03 0.000000e+00
      1.359839e+05 -3.000000e+03 0.000000e+00
      1.367742e+05 -3.000000e+03 0.000000e+00
      1.375645e+05 -3.000000e+03 0.000000e+00
      1.383548e+05 -3.000000e+03 0.000000e+00
      1.391452e+05 -3.000000e+03 0.000000e+00
      1.399355e+05 -3.000000e+03 0.000000e+00
      1.407258e+05 -3.000000e+03 0.000000e+00
      1.415161e+05 -3.000000e+03 0.000000e+00
      1.423065e+05 -3.000000e+03 0.000000e+00
      1.430968e+05 -3.000000e+03 0.000000e+00
      1.438871e+05 -3.000000e+03 0.000000e+00
      1.446774e+05 -3.000000e+03 0.000000e+00
      1.454677e+05 -3.000000e+03 0.000000e+00
      1.462581e+05 -3.000000e+03 0.000000e+00
      1.470484e+05 -3.000000e+03 0.000000e+00
      1.478387e+05 -3.000000e+03 0.000000e+00
      1.486290e+05 -3.000000e+03 0.000000e+00
      1.494194e+05 -3.000000e+03 0.000000e+00
      1.502097e+05 -3.000000e+03 0.000000e+00
      1.510000e+05 -3.000000e+03 0.000000e+00
      1.517903e+05 -3.000000e+03 0.000000e+00
      1.525806e+05 -3.000000e+03 0.000000e+00
      1.533710e+05 -3.000000e+03 0.000000e+00
      1.541613e+05 -3.000000e+03 0.000000e+00
      1.549516e+05 -3.000000e+03 0.000000e+00
      1.557419e+05 -3.000000e+03 0.000000e+00
      1.565323e+05 -3.000000e+03 0.000000e+00
      1.573226e+05 -3.000000e+03 0.000000e+00
      1.581129e+05 -3.000000e+03 0.000000e+00
      1.589032e+05 -3.000000e+03 0.000000e+00
      1.596935e+05 -3.000000e+03 0.000000e+00
      1.604839e+05 -3.000000e+03 0.000000e+00
      1.612742e+05 -3.000000e+03 0.000000e+00
      1.620645e+05 -3.000000e+03 0.000000e+00
      1.628548e+05 -3.000000e+03 0.000000e+00
      1.636452e+05 -3.000000e+03 0.000000e+00
[...]
    <CellData>
      <DataArray Name="int_avg pressure (Pa)" type="Float64" NumberOfComponents="1" format="ascii">
      6.765058e+07 6.765058e+07 6.765031e+07 6.765031e+07 6.764905e+07 6.764905e+07 6.763252e+07 6.763252e+07 6.759478e+07 6.759478e+07 6.756067e+07 6.756067e+07 6.752568e+07 6.752568e+07 6.749350e+07 6.749350e+07 6.746643e+07 6.746643e+07 6.744515e+07 6.744515e+07 6.742896e+07 6.742896e+07 6.741636e+07 6.741636e+07 6.740571e+07 6.740571e+07 6.739572e+07 6.739572e+07 6.738583e+07 6.738583e+07 6.737641e+07 6.737641e+07 6.736866e+07 6.736866e+07 6.736420e+07 6.736420e+07 6.736423e+07 6.736423e+07 6.736858e+07 6.736858e+07 6.737495e+07 6.737495e+07 6.737885e+07 6.737885e+07 6.737461e+07 6.737461e+07 6.735790e+07 6.735790e+07 6.733095e+07 6.733095e+07 6.730894e+07 6.730894e+07 6.731110e+07 6.731110e+07 6.732084e+07 6.732084e+07 6.734747e+07 6.734747e+07 6.737619e+07 6.737619e+07 6.739630e+07 6.739630e+07 6.740407e+07 6.740407e+07 6.740201e+07 6.740201e+07 6.739525e+07 6.739525e+07 6.738779e+07 6.738779e+07 6.738183e+07 6.738183e+07 6.737804e+07 6.737804e+07 6.737606e+07 6.737606e+07 6.737523e+07 6.737523e+07 6.737498e+07 6.737498e+07 6.737498e+07 6.737498e+07 6.737513e+07 6.737513e+07 6.737542e+07 6.737542e+07 6.737584e+07 6.737584e+07 6.737636e+07 6.737636e+07 6.737698e+07 6.737698e+07 6.737762e+07 6.737762e+07 6.737824e+07 6.737824e+07 6.737884e+07 6.737884e+07 6.737932e+07 6.737932e+07 6.737949e+07 6.737949e+07 6.737934e+07 6.737934e+07 6.737905e+07 6.737905e+07 6.737866e+07 6.737866e+07 6.737846e+07 6.737846e+07 6.737861e+07 6.737861e+07 6.737915e+07 6.737915e+07 6.738013e+07 6.738013e+07 6.738109e+07 6.738109e+07 6.738152e+07 6.738152e+07 6.738082e+07 6.738082e+07 6.737856e+07 6.737856e+07 6.737507e+07 6.737507e+07 6.737269e+07 6.737269e+07 6.737562e+07 6.737562e+07 6.738603e+07 6.738603e+07 6.739660e+07 6.739660e+07 6.739359e+07 6.739359e+07 6.738471e+07 6.738471e+07 6.737947e+07 6.737947e+07 6.737725e+07 6.737725e+07 6.737897e+07 6.737897e+07 6.738621e+07 6.738621e+07 6.739827e+07 6.739827e+07 6.740613e+07 6.740613e+07 6.739876e+07 6.739876e+07 6.737643e+07 6.737643e+07 6.735629e+07 6.735629e+07 6.736988e+07 6.736988e+07 6.741472e+07 6.741472e+07 6.745280e+07 6.745280e+07 6.743938e+07 6.743938e+07 6.740454e+07 6.740454e+07 6.740755e+07 6.740755e+07 6.743866e+07 6.743866e+07 6.747586e+07 6.747586e+07 6.751598e+07 6.751598e+07 6.750834e+07 6.750834e+07 6.750757e+07 6.750757e+07 6.755913e+07 6.755913e+07 6.769576e+07 6.769576e+07 6.787663e+07 6.787663e+07 6.806997e+07 6.806997e+07 6.824022e+07 6.824022e+07 6.844774e+07 6.844774e+07 6.849531e+07 6.849531e+07 6.921564e+07 6.921564e+07 7.099432e+07 7.099432e+07 7.259854e+07 7.259854e+07 7.423584e+07 7.423584e+07 7.564100e+07 7.564100e+07 7.953594e+07 7.953594e+07 8.145026e+07 8.145026e+07 8.497807e+07 8.497807e+07 8.898679e+07 8.898679e+07 9.260451e+07 9.260451e+07 9.574525e+07 9.574525e+07 9.910724e+07 9.910724e+07 1.026502e+08 1.026502e+08 1.061941e+08 1.061941e+08 1.096163e+08 1.096163e+08 1.131543e+08 1.131543e+08 1.155617e+08 1.155617e+08 1.200760e+08 1.200760e+08 1.229711e+08 1.229711e+08 1.276921e+08 1.276921e+08 1.327986e+08 1.327986e+08 1.371450e+08 1.371450e+08 1.408683e+08 1.408683e+08 1.457143e+08 1.457143e+08 1.471425e+08 1.471425e+08 1.493801e+08 1.493801e+08 1.523021e+08 1.523021e+08 1.561091e+08 1.561091e+08 1.799722e+08 1.799722e+08 1.704963e+08 1.704963e+08 1.664587e+08 1.664587e+08 1.626802e+08 1.626802e+08 6.765058e+07 6.765058e+07 6.765031e+07 6.765031e+07 6.764905e+07 6.764905e+07 6.763252e+07 6.763252e+07 6.759478e+07 6.759478e+07 6.756067e+07 6.756067e+07 6.752568e+07 6.752568e+07 6.749350e+07 6.749350e+07 6.746643e+07 6.746643e+07 6.744515e+07 6.744515e+07 6.742896e+07 6.742896e+07 6.741636e+07 6.741636e+07 6.740571e+07 6.740571e+07 6.739572e+07 6.739572e+07 6.738583e+07 6.738583e+07 6.737641e+07 6.737641e+07 6.736866e+07 6.736866e+07 6.736420e+07 6.736420e+07 6.736423e+07 6.736423e+07 6.736858e+07 6.736858e+07 6.737495e+07 6.737495e+07 6.737885e+07 6.737885e+07 6.737461e+07 6.737461e+07 6.735790e+07 6.735790e+07 6.733095e+07 6.733095e+07 6.730894e+07 6.730894e+07 6.731110e+07 6.731110e+07 6.732084e+07 6.732084e+07 6.734747e+07 6.734747e+07 6.737619e+07 6.737619e+07 6.739630e+07 6.739630e+07 6.740407e+07 6.740407e+07 6.740201e+07 6.740201e+07 6.739525e+07 6.739525e+07 6.738779e+07 6.738779e+07 6.738183e+07 6.738183e+07 6.737804e+07 6.737804e+07 6.737606e+07 6.737606e+07 6.737523e+07 6.737523e+07 6.737498e+07 6.737498e+07 6.737498e+07 6.737498e+07 6.737513e+07 6.737513e+07 6.737542e+07 6.737542e+07 6.737584e+07 6.737584e+07 6.737636e+07 6.737636e+07 6.737698e+07 6.737698e+07 6.737762e+07 6.737762e+07 6.737824e+07 6.737824e+07 6.737884e+07 6.737884e+07 6.737932e+07 6.737932e+07 6.737949e+07 6.737949e+07 6.737934e+07 6.737934e+07 6.737905e+07 6.737905e+07 6.737866e+07 6.737866e+07 6.737846e+07 6.737846e+07 6.737861e+07 6.737861e+07 6.737915e+07 6.737915e+07 6.738013e+07 6.738013e+07 6.738109e+07 6.738109e+07 6.738152e+07 6.738152e+07 6.738082e+07 6.738082e+07 6.737856e+07 6.737856e+07 6.737507e+07 6.737507e+07 6.737269e+07 6.737269e+07 6.737562e+07 6.737562e+07 6.738603e+07 6.738603e+07 6.739660e+07 6.739660e+07 6.739359e+07 6.739359e+07 6.738471e+07 6.738471e+07 6.737947e+07 6.737947e+07 6.737725e+07 6.737725e+07 6.737897e+07 6.737897e+07 6.738621e+07 6.738621e+07 6.739827e+07 6.739827e+07 6.740613e+07 6.740613e+07 6.739876e+07 6.739876e+07 6.737643e+07 6.737643e+07 6.735629e+07 6.735629e+07 6.736988e+07 6.736988e+07 6.741472e+07 6.741472e+07 6.745280e+07 6.745280e+07 6.743938e+07 6.743938e+07 6.740454e+07 6.740454e+07 6.740755e+07 6.740755e+07 6.743866e+07 6.743866e+07 6.747586e+07 6.747586e+07 6.751598e+07 6.751598e+07 6.750834e+07 6.750834e+07 6.750757e+07 6.750757e+07 6.755913e+07 6.755913e+07 6.769576e+07 6.769576e+07 6.787663e+07 6.787663e+07 6.806997e+07 6.806997e+07 6.824022e+07 6.824022e+07 6.844774e+07 6.844774e+07 6.849531e+07 6.849531e+07 6.921564e+07 6.921564e+07 7.099432e+07 7.099432e+07 7.259854e+07 7.259854e+07 7.423584e+07 7.423584e+07 7.564100e+07 7.564100e+07 7.953594e+07 7.953594e+07 8.145026e+07 8.145026e+07 8.497807e+07 8.497807e+07 8.898679e+07 8.898679e+07 9.260451e+07 9.260451e+07 9.574525e+07 9.574525e+07 9.910724e+07 9.910724e+07 1.026502e+08 1.026502e+08 1.061941e+08 1.061941e+08 1.096163e+08 1.096163e+08 1.131543e+08 1.131543e+08 1.155617e+08 1.155617e+08 1.200760e+08 1.200760e+08 1.229711e+08 1.229711e+08 1.276921e+08 1.276921e+08 1.327986e+08 1.327986e+08 1.371450e+08 1.371450e+08 1.408683e+08 1.408683e+08 1.457143e+08 1.457143e+08 1.471425e+08 1.471425e+08 1.493801e+08 1.493801e+08 1.523021e+08 1.523021e+08 1.561091e+08 1.561091e+08 1.799722e+08 1.799722e+08 1.704963e+08 1.704963e+08 1.664587e+08 1.664587e+08 1.626802e+08 1.626802e+08 6.588942e+07 6.588942e+07 6.588916e+07 6.588916e+07 6.588789e+07 6.588789e+07 6.587137e+07 6.587137e+07 6.583363e+07 6.583363e+07 6.579952e+07 6.579952e+07 6.576453e+07 6.576453e+07 6.573235e+07 6.573235e+07 6.570528e+07 6.570528e+07 6.568400e+07 6.568400e+07 6.566781e+07 6.566781e+07 6.565521e+07 6.565521e+07 6.564456e+07 6.564456e+07 6.563457e+07 6.563457e+07 6.562468e+07 6.562468e+07 6.561526e+07 6.561526e+07 6.560752e+07 6.560752e+07 6.560305e+07 6.560305e+07 6.560308e+07 6.560308e+07 6.560743e+07 6.560743e+07 6.561380e+07 6.561380e+07 6.561771e+07 6.561771e+07 6.561346e+07 6.561346e+07 6.559675e+07 6.559675e+07 6.556980e+07 6.556980e+07 6.554780e+07 6.554780e+07 6.554999e+07 6.554999e+07 6.555970e+07 6.555970e+07 6.558634e+07 6.558634e+07 6.561506e+07 6.561506e+07 6.563517e+07 6.563517e+07 6.564293e+07 6.564293e+07 6.564087e+07 6.564087e+07 6.563412e+07 6.563412e+07 6.562666e+07 6.562666e+07 6.562070e+07 6.562070e+07 6.561690e+07 6.561690e+07 6.561493e+07 6.561493e+07 6.561410e+07 6.561410e+07 6.561385e+07 6.561385e+07 6.561385e+07 6.561385e+07 6.561400e+07 6.561400e+07 6.561429e+07 6.561429e+07 6.561471e+07 6.561471e+07 6.561523e+07 6.561523e+07 6.561586e+07 6.561586e+07 6.561650e+07 6.561650e+07 6.561711e+07 6.561711e+07 6.561771e+07 6.561771e+07 6.561819e+07 6.561819e+07 6.561836e+07 6.561836e+07 6.561821e+07 6.561821e+07 6.561792e+07 6.561792e+07 6.561754e+07 6.561754e+07 6.561734e+07 6.561734e+07 6.561749e+07 6.561749e+07 6.561803e+07 6.561803e+07 6.561901e+07 6.561901e+07 6.561997e+07 6.561997e+07 6.562041e+07 6.562041e+07 6.561971e+07 6.561971e+07 6.561745e+07 6.561745e+07 6.561397e+07 6.561397e+07 6.561160e+07 6.561160e+07 6.561453e+07 6.561453e+07 6.562495e+07 6.562495e+07 6.563552e+07 6.563552e+07 6.563253e+07 6.563253e+07 6.562365e+07 6.562365e+07 6.561841e+07 6.561841e+07 6.561620e+07 6.561620e+07 6.561794e+07 6.561794e+07 6.562519e+07 6.562519e+07 6.563726e+07 6.563726e+07 6.564514e+07 6.564514e+07 6.563780e+07 6.563780e+07 6.561550e+07 6.561550e+07 6.559539e+07 6.559539e+07 6.560907e+07 6.560907e+07 6.565398e+07 6.565398e+07 6.569201e+07 6.569201e+07 6.567887e+07 6.567887e+07 6.564406e+07 6.564406e+07 6.564726e+07 6.564726e+07 6.567853e+07 6.567853e+07 6.571603e+07 6.571603e+07 6.575644e+07 6.575644e+07 6.574935e+07 6.574935e+07 6.574924e+07 6.574924e+07 6.580184e+07 6.580184e+07 6.593988e+07 6.593988e+07 6.612236e+07 6.612236e+07 6.631649e+07 6.631649e+07 6.648959e+07 6.648959e+07 6.670274e+07 6.670274e+07 6.675754e+07 6.675754e+07 6.748795e+07 6.748795e+07 6.928561e+07 6.928561e+07 7.089786e+07 7.089786e+07 7.253895e+07 7.253895e+07 7.393351e+07 7.393351e+07 7.786363e+07 7.786363e+07 7.977155e+07 7.977155e+07 8.325954e+07 8.325954e+07 8.727174e+07 8.727174e+07 9.087368e+07 9.087368e+07 9.401531e+07 9.401531e+07 9.737642e+07 9.737642e+07 1.009277e+08 1.009277e+08 1.044727e+08 1.044727e+08 1.079025e+08 1.079025e+08 1.114500e+08 1.114500e+08 1.138741e+08 1.138741e+08 1.184085e+08 1.184085e+08 1.213319e+08 1.213319e+08 1.260731e+08 1.260731e+08 1.312234e+08 1.312234e+08 1.356182e+08 1.356182e+08 1.394164e+08 1.394164e+08 1.443582e+08 1.443582e+08 1.459352e+08 1.459352e+08 1.484639e+08 1.484639e+08 1.519117e+08 1.519117e+08 1.565010e+08 1.565010e+08 1.752654e+08 1.752654e+08 1.673813e+08 1.673813e+08 1.642293e+08 1.642293e+08 1.609113e+08 1.609113e+08 6.588942e+07 6.588942e+07 6.588916e+07 6.588916e+07 6.588789e+07 6.588789e+07 6.587137e+07 6.587137e+07 6.583363e+07 6.583363e+07 6.579952e+07 6.579952e+07 6.576453e+07 6.576453e+07 6.573235e+07 6.573235e+07 6.570528e+07 6.570528e+07 6.568400e+07 6.568400e+07 6.566781e+07 6.566781e+07 6.565521e+07 6.565521e+07 6.564456e+07 6.564456e+07 6.563457e+07 6.563457e+07 6.562468e+07 6.562468e+07 6.561526e+07 6.561526e+07 6.560752e+07 6.560752e+07 6.560305e+07 6.560305e+07 6.560308e+07 6.560308e+07 6.560743e+07 6.560743e+07 6.561380e+07 6.561380e+07 6.561771e+07 6.561771e+07 6.561346e+07 6.561346e+07 6.559675e+07 6.559675e+07 6.556980e+07 6.556980e+07 6.554780e+07 6.554780e+07 6.554999e+07 6.554999e+07 6.555970e+07 6.555970e+07 6.558634e+07 6.558634e+07 6.561506e+07 6.561506e+07 6.563517e+07 6.563517e+07 6.564293e+07 6.564293e+07 6.564087e+07 6.564087e+07 6.563412e+07 6.563412e+07 6.562666e+07 6.562666e+07 6.562070e+07 6.562070e+07 6.561690e+07 6.561690e+07 6.561493e+07 6.561493e+07 6.561410e+07 6.561410e+07 6.561385e+07 6.561385e+07 6.561385e+07 6.561385e+07 6.561400e+07 6.561400e+07 6.561429e+07 6.561429e+07 6.561471e+07 6.561471e+07 6.561523e+07 6.561523e+07 6.561586e+07 6.561586e+07 6.561650e+07 6.561650e+07 6.561711e+07 6.561711e+07 6.561771e+07 6.561771e+07 6.561819e+07 6.561819e+07 6.561836e+07 6.561836e+07 6.561821e+07 6.561821e+07 6.561792e+07 6.561792e+07 6.561754e+07 6.561754e+07 6.561734e+07 6.561734e+07 6.561749e+07 6.561749e+07 6.561803e+07 6.561803e+07 6.561901e+07 6.561901e+07 6.561997e+07 6.561997e+07 6.562041e+07 6.562041e+07 6.561971e+07 6.561971e+07 6.561745e+07 6.561745e+07 6.561397e+07 6.561397e+07 6.561160e+07 6.561160e+07 6.561453e+07 6.561453e+07 6.562495e+07 6.562495e+07 6.563552e+07 6.563552e+07 6.563253e+07 6.563253e+07 6.562365e+07 6.562365e+07 6.561841e+07 6.561841e+07 6.561620e+07 6.561620e+07 6.561794e+07 6.561794e+07 6.562519e+07 6.562519e+07 6.563726e+07 6.563726e+07 6.564514e+07 6.564514e+07 6.563780e+07 6.563780e+07 6.561550e+07 6.561550e+07 6.559539e+07 6.559539e+07 6.560907e+07 6.560907e+07 6.565398e+07 6.565398e+07 6.569201e+07 6.569201e+07 6.567887e+07 6.567887e+07 6.564406e+07 6.564406e+07 6.564726e+07 6.564726e+07 6.567853e+07 6.567853e+07 6.571603e+07 6.571603e+07 6.575644e+07 6.575644e+07 6.574935e+07 6.574935e+07 6.574924e+07 6.574924e+07 6.580184e+07 6.580184e+07 6.593988e+07 6.593988e+07 6.612236e+07 6.612236e+07 6.631649e+07 6.631649e+07 6.648959e+07 6.648959e+07 6.670274e+07 6.670274e+07 6.675754e+07 6.675754e+07 6.748795e+07 6.748795e+07 6.928561e+07 6.928561e+07 7.089786e+07 7.089786e+07 7.253895e+07 7.253895e+07 7.393351e+07 7.393351e+07 7.786363e+07 7.786363e+07 7.977155e+07 7.977155e+07 8.325954e+07 8.325954e+07 8.727174e+07 8.727174e+07 9.087368e+07 9.087368e+07 9.401531e+07 9.401531e+07 9.737642e+07 9.737642e+07 1.009277e+08 1.009277e+08 1.044727e+08 1.044727e+08 1.079025e+08 1.079025e+08 1.114500e+08 1.114500e+08 1.138741e+08 1.138741e+08 1.184085e+08 1.184085e+08 1.213319e+08 1.213319e+08 1.260731e+08 1.260731e+08 1.312234e+08 1.312234e+08 1.356182e+08 1.356182e+08 1.394164e+08 1.394164e+08 1.443582e+08 1.443582e+08 1.459352e+08 1.459352e+08 1.484639e+08 1.484639e+08 1.519117e+08 1.519117e+08 1.565010e+08 1.565010e+08 1.752654e+08 1.752654e+08 1.673813e+08 1.673813e+08 1.642293e+08 1.642293e+08 1.609113e+08 1.609113e+08 6.310756e+07 6.310756e+07 6.310697e+07 6.310697e+07 6.310376e+07 6.310376e+07 6.308538e+07 6.308538e+07 6.306143e+07 6.306143e+07 6.302219e+07 6.302219e+07 6.298819e+07 6.298819e+07 6.295692e+07 6.295692e+07 6.293047e+07 6.293047e+07 6.290958e+07 6.290958e+07 6.289369e+07 6.289369e+07 6.288138e+07 6.288138e+07 6.287094e+07 6.287094e+07 6.286117e+07 6.286117e+07 6.285155e+07 6.285155e+07 6.284243e+07 6.284243e+07 6.283508e+07 6.283508e+07 6.283113e+07 6.283113e+07 6.283168e+07 6.283168e+07 6.283647e+07 6.283647e+07 6.284309e+07 6.284309e+07 6.284667e+07 6.284667e+07 6.283593e+07 6.283593e+07 6.283383e+07 6.283383e+07 6.283372e+07 6.283372e+07 6.318675e+07 6.318675e+07 6.312174e+07 6.312174e+07 6.360339e+07 6.360339e+07 6.295237e+07 6.295237e+07 6.333958e+07 6.333958e+07 6.337283e+07 6.337283e+07 6.337508e+07 6.337508e+07 6.337914e+07 6.337914e+07 6.337253e+07 6.337253e+07 6.336780e+07 6.336780e+07 6.336172e+07 6.336172e+07 6.335752e+07 6.335752e+07 6.335500e+07 6.335500e+07 6.335445e+07 6.335445e+07 6.335546e+07 6.335546e+07 6.335678e+07 6.335678e+07 6.336016e+07 6.336016e+07 6.336457e+07 6.336457e+07 6.336908e+07 6.336908e+07 6.337603e+07 6.337603e+07 6.338385e+07 6.338385e+07 6.339333e+07 6.339333e+07 6.340482e+07 6.340482e+07 6.341649e+07 6.341649e+07 6.343063e+07 6.343063e+07 6.344496e+07 6.344496e+07 6.346079e+07 6.346079e+07 6.347722e+07 6.347722e+07 6.349628e+07 6.349628e+07 6.351434e+07 6.351434e+07 6.353518e+07 6.353518e+07 6.355857e+07 6.355857e+07 6.358481e+07 6.358481e+07 6.360886e+07 6.360886e+07 6.363878e+07 6.363878e+07 6.366459e+07 6.366459e+07 6.369517e+07 6.369517e+07 6.372208e+07 6.372208e+07 6.376112e+07 6.376112e+07 6.379864e+07 6.379864e+07 6.387107e+07 6.387107e+07 6.390506e+07 6.390506e+07 6.395532e+07 6.395532e+07 6.396897e+07 6.396897e+07 6.399427e+07 6.399427e+07 6.403163e+07 6.403163e+07 6.407801e+07 6.407801e+07 6.413725e+07 6.413725e+07 6.420261e+07 6.420261e+07 6.426369e+07 6.426369e+07 6.431880e+07 6.431880e+07 6.437016e+07 6.437016e+07 6.441065e+07 6.441065e+07 6.418540e+07 6.418540e+07 6.454507e+07 6.454507e+07 6.554611e+07 6.554611e+07 6.459927e+07 6.459927e+07 6.502448e+07 6.502448e+07 6.518366e+07 6.518366e+07 6.533908e+07 6.533908e+07 6.556888e+07 6.556888e+07 6.575806e+07 6.575806e+07 6.600214e+07 6.600214e+07 6.622961e+07 6.622961e+07 6.659132e+07 6.659132e+07 6.706130e+07 6.706130e+07 6.781725e+07 6.781725e+07 6.907899e+07 6.907899e+07 6.915488e+07 6.915488e+07 6.918521e+07 6.918521e+07 6.983516e+07 6.983516e+07 7.169107e+07 7.169107e+07 7.323387e+07 7.323387e+07 7.543604e+07 7.543604e+07 7.693746e+07 7.693746e+07 7.753658e+07 7.753658e+07 8.278099e+07 8.278099e+07 8.366253e+07 8.366253e+07 8.738949e+07 8.738949e+07 9.191304e+07 9.191304e+07 9.360022e+07 9.360022e+07 9.549029e+07 9.549029e+07 9.932445e+07 9.932445e+07 1.032450e+08 1.032450e+08 1.088054e+08 1.088054e+08 1.137083e+08 1.137083e+08 1.176175e+08 1.176175e+08 1.199182e+08 1.199182e+08 1.258861e+08 1.258861e+08 1.298372e+08 1.298372e+08 1.364197e+08 1.364197e+08 1.419109e+08 1.419109e+08 1.450214e+08 1.450214e+08 1.472119e+08 1.472119e+08 1.488312e+08 1.488312e+08 1.534006e+08 1.534006e+08 1.588283e+08 1.588283e+08 1.628966e+08 1.628966e+08 1.631491e+08 1.631491e+08 1.679626e+08 1.679626e+08 1.623823e+08 1.623823e+08 1.589831e+08 1.589831e+08 1.539806e+08 1.539806e+08 6.310756e+07 6.310756e+07 6.310697e+07 6.310697e+07 6.310376e+07 6.310376e+07 6.308538e+07 6.308538e+07 6.306143e+07 6.306143e+07 6.302219e+07 6.302219e+07 6.298819e+07 6.298819e+07 6.295692e+07 6.295692e+07 6.293047e+07 6.293047e+07 6.290958e+07 6.290958e+07 6.289369e+07 6.289369e+07 6.288138e+07 6.288138e+07 6.287094e+07 6.287094e+07 6.286117e+07 6.286117e+07 6.285155e+07 6.285155e+07 6.284243e+07 6.284243e+07 6.283508e+07 6.283508e+07 6.283113e+07 6.283113e+07 6.283168e+07 6.283168e+07 6.283647e+07 6.283647e+07 6.284309e+07 6.284309e+07 6.284667e+07 6.284667e+07 6.283593e+07 6.283593e+07 6.283383e+07 6.283383e+07 6.283372e+07 6.283372e+07 6.318675e+07 6.318675e+07 6.312174e+07 6.312174e+07 6.360339e+07 6.360339e+07 6.295237e+07 6.295237e+07 6.333958e+07 6.333958e+07 6.337283e+07 6.337283e+07 6.337508e+07 6.337508e+07 6.337914e+07 6.337914e+07 6.337253e+07 6.337253e+07 6.336780e+07 6.336780e+07 6.336172e+07 6.336172e+07 6.335752e+07 6.335752e+07 6.335500e+07 6.335500e+07 6.335445e+07 6.335445e+07 6.335546e+07 6.335546e+07 6.335678e+07 6.335678e+07 6.336016e+07 6.336016e+07 6.336457e+07 6.336457e+07 6.336908e+07 6.336908e+07 6.337603e+07 6.337603e+07 6.338385e+07 6.338385e+07 6.339333e+07 6.339333e+07 6.340482e+07 6.340482e+07 6.341649e+07 6.341649e+07 6.343063e+07 6.343063e+07 6.344496e+07 6.344496e+07 6.346079e+07 6.346079e+07 6.347722e+07 6.347722e+07 6.349628e+07 6.349628e+07 6.351434e+07 6.351434e+07 6.353518e+07 6.353518e+07 6.355857e+07 6.355857e+07 6.358481e+07 6.358481e+07 6.360886e+07 6.360886e+07 6.363878e+07 6.363878e+07 6.366459e+07 6.366459e+07 6.369517e+07 6.369517e+07 6.372208e+07 6.372208e+07 6.376112e+07 6.376112e+07 6.379864e+07 6.379864e+07 6.387107e+07 6.387107e+07 6.390506e+07 6.390506e+07 6.395532e+07 6.395532e+07 6.396897e+07 6.396897e+07 6.399427e+07 6.399427e+07 6.403163e+07 6.403163e+07 6.407801e+07 6.407801e+07 6.413725e+07 6.413725e+07 6.420261e+07 6.420261e+07 6.426369e+07 6.426369e+07 6.431880e+07 6.431880e+07 6.437016e+07 6.437016e+07 6.441065e+07 6.441065e+07 6.418540e+07 6.418540e+07 6.454507e+07 6.454507e+07 6.554611e+07 6.554611e+07 6.459927e+07 6.459927e+07 6.502448e+07 6.502448e+07 6.518366e+07 6.518366e+07 6.533908e+07 6.533908e+07 6.556888e+07 6.556888e+07 6.575806e+07 6.575806e+07 6.600214e+07 6.600214e+07 6.622961e+07 6.622961e+07 6.659132e+07 6.659132e+07 6.706130e+07 6.706130e+07 6.781725e+07 6.781725e+07 6.907899e+07 6.907899e+07 6.915488e+07 6.915488e+07 6.918521e+07 6.918521e+07 6.983516e+07 6.983516e+07 7.169107e+07 7.169107e+07 7.323387e+07 7.323387e+07 7.543604e+07 7.543604e+07 7.693746e+07 7.693746e+07 7.753658e+07 7.753658e+07 8.278099e+07 8.278099e+07 8.366253e+07 8.366253e+07 8.738949e+07 8.738949e+07 9.191304e+07 9.191304e+07 9.360022e+07 9.360022e+07 9.549029e+07 9.549029e+07 9.932445e+07 9.932445e+07 1.032450e+08 1.032450e+08 1.088054e+08 1.088054e+08 1.137083e+08 1.137083e+08 1.176175e+08 1.176175e+08 1.199182e+08 1.199182e+08 1.258861e+08 1.258861e+08 1.298372e+08 1.298372e+08 1.364197e+08 1.364197e+08 1.419109e+08 1.419109e+08 1.450214e+08 1.450214e+08 1.472119e+08 1.472119e+08 1.488312e+08 1.488312e+08 1.534006e+08 1.534006e+08 1.588283e+08 1.588283e+08 1.628966e+08 1.628966e+08 1.631491e+08 1.631491e+08 1.679626e+08 1.